SiO2_Bulk                               
           1
     8.077860    0.000000    0.000000
     0.000000    8.077860    0.000000
     0.000000    0.000000    8.077860
   Al
  32
Direct configuration=    10
   0.99006876  0.01577201  0.99614670
   0.00348774  0.24978377  0.27665717
   0.23821445  0.99468112  0.25154563
   0.24212490  0.23565247  0.99109001
   0.01896606  0.99348227  0.51573230
   0.99148106  0.25878880  0.75841123
   0.24504238  0.00660212  0.75734142
   0.25786342  0.25257615  0.49842354
   0.98878239  0.48740152  0.00678075
   0.98476678  0.75388744  0.24661834
   0.25553028  0.50420765  0.24701438
   0.24238533  0.77032359  0.00257646
   0.98619526  0.52805495  0.51330879
   0.99308347  0.75649127  0.75470143
   0.26124460  0.50298244  0.75410018
   0.26552675  0.74212964  0.49512837
   0.49388827  0.98919692  0.00636004
   0.50907327  0.24330437  0.24075674
   0.75144515  0.01164274  0.23346929
   0.75610600  0.26055462  0.97811718
   0.50396138  0.98642771  0.50629056
   0.48839376  0.25404275  0.72352844
   0.75439674  0.98983251  0.74012847
   0.73598882  0.23598931  0.51278604
   0.50102016  0.50213284  0.00430225
   0.50082381  0.75416375  0.24688761
   0.76442775  0.48818001  0.24609760
   0.74310094  0.74976451  0.99523841
   0.52498700  0.51575249  0.50208273
   0.52082859  0.73510388  0.74664738
   0.72946393  0.47775927  0.75021552
   0.75733081  0.75333511  0.50151504
Direct configuration=    20
   0.97984045  0.03239101  0.99200930
   0.00754647  0.24917599  0.30533513
   0.22505277  0.98922963  0.25344630
   0.23354469  0.22066935  0.98217852
   0.03938877  0.98704377  0.53173647
   0.98351329  0.26755500  0.76621285
   0.23963166  0.01309863  0.76553739
   0.26597507  0.25428156  0.49505186
   0.97787347  0.47426537  0.01320052
   0.96939631  0.75920195  0.24280703
   0.26149301  0.50988951  0.24398987
   0.23308648  0.79236096  0.00579744
   0.97170478  0.55627530  0.52709010
   0.98577707  0.76383907  0.76258995
   0.27360383  0.50614234  0.75912090
   0.28263579  0.73374717  0.48933215
   0.48683653  0.97860327  0.01101725
   0.51760584  0.23686966  0.23148801
   0.75366931  0.02271804  0.21687367
   0.76038082  0.26967328  0.95530266
   0.50724031  0.97129926  0.51284917
   0.47682517  0.25811587  0.69784674
   0.75885565  0.98025867  0.73131598
   0.72246962  0.22163427  0.52587200
   0.50231630  0.50415936  0.00842622
   0.50226559  0.75748405  0.24398738
   0.77808390  0.47606140  0.24335568
   0.73723273  0.74893890  0.99047356
   0.55274859  0.53236199  0.50238386
   0.54193892  0.71997503  0.74195999
   0.70831493  0.45501137  0.74945067
   0.76315188  0.75766897  0.50196138
Direct configuration=    30
   0.96787120  0.04728124  0.98653159
   0.01160392  0.24864704  0.33891372
   0.21017451  0.98548038  0.25715130
   0.22692086  0.20919954  0.97639174
   0.05981134  0.98054722  0.54707144
   0.98108872  0.27612862  0.76710974
   0.23519235  0.01687666  0.77312398
   0.27219365  0.25423360  0.48468784
   0.97192434  0.46353689  0.01839087
   0.95343727  0.76630238  0.23815701
   0.26718952  0.51683180  0.24054402
   0.21938797  0.81412987  0.00882924
   0.96132981  0.58054577  0.54084304
   0.97943217  0.77203418  0.77807366
   0.28626018  0.51077618  0.76603994
   0.30007504  0.72353077  0.48434935
   0.48056196  0.96986094  0.01150574
   0.52435398  0.23132280  0.22208432
   0.75580286  0.03247417  0.20126800
   0.75555689  0.26957152  0.93976711
   0.50964149  0.95569267  0.52018031
   0.46448850  0.26008718  0.67757836
   0.76232204  0.97177922  0.72637659
   0.71272360  0.20566349  0.53509813
   0.50353322  0.50567784  0.01253764
   0.50625307  0.75958276  0.24001936
   0.78846618  0.46289355  0.24400755
   0.73401220  0.74809168  0.98651742
   0.58292688  0.54640461  0.49527957
   0.56139014  0.70776668  0.73716672
   0.68787848  0.43658436  0.74507760
   0.76619566  0.77046442  0.49932709
Direct configuration=    40
   0.95229029  0.06069873  0.97630042
   0.01240988  0.24818866  0.38609600
   0.18932458  0.98499113  0.26543334
   0.22318820  0.20450618  0.97873177
   0.08140153  0.97043967  0.56178890
   0.98766867  0.28627972  0.75566557
   0.23441711  0.01598306  0.77956910
   0.27629419  0.25169183  0.45689697
   0.97396879  0.45446353  0.02242078
   0.93201825  0.77801700  0.23036597
   0.27324682  0.52503814  0.23501059
   0.19512316  0.83770918  0.01295874
   0.95729424  0.60197144  0.55880602
   0.97495367  0.78227724  0.80781767
   0.30147892  0.51882077  0.77725862
   0.32118501  0.70888025  0.48128065
   0.47549030  0.96298624  0.00597350
   0.52798227  0.22618381  0.20957847
   0.75737659  0.04199216  0.18418098
   0.73612454  0.25325017  0.93751615
   0.51019500  0.93771989  0.53126550
   0.44776565  0.25784353  0.66344790
   0.76413965  0.96406762  0.72833799
   0.70777282  0.18483841  0.53847133
   0.50633906  0.50649530  0.01748615
   0.51609569  0.76080688  0.23420094
   0.79480726  0.44461579  0.25103495
   0.73358477  0.74750389  0.98504307
   0.62282251  0.55594819  0.47339329
   0.58201700  0.69907693  0.73213211
   0.66343473  0.42236514  0.73233790
   0.76778884  0.80434953  0.48919865
Direct configuration=    50
   0.94302131  0.06812227  0.96215034
   0.00132491  0.24733774  0.43533729
   0.16774633  0.98846631  0.27655877
   0.22344543  0.20903143  0.99146146
   0.09408239  0.95631742  0.56869232
   0.99801878  0.29543274  0.73680726
   0.24151208  0.01201482  0.78489653
   0.28360157  0.24871196  0.41512843
   0.98304703  0.44727303  0.02334848
   0.91189644  0.79153149  0.21976131
   0.27757014  0.53187834  0.22760293
   0.16783688  0.85653380  0.02115613
   0.95835944  0.61788747  0.57822617
   0.97586666  0.78971887  0.84098380
   0.31506596  0.52784250  0.78865829
   0.33913470  0.69266116  0.48184399
   0.47323179  0.96045696  0.99596493
   0.52492605  0.22334202  0.19626866
   0.75663291  0.04741808  0.17317720
   0.70839227  0.23063184  0.94403705
   0.50495607  0.92452226  0.54369558
   0.42959513  0.24900944  0.65948940
   0.76333697  0.96204990  0.74052249
   0.70873001  0.16665965  0.53410779
   0.51261306  0.50668361  0.02192267
   0.53020834  0.76109508  0.22887397
   0.79681435  0.42189507  0.26023183
   0.73293693  0.74726465  0.98926129
   0.66265630  0.55988469  0.44520307
   0.59866669  0.69633635  0.72677541
   0.64340289  0.41288233  0.71686596
   0.77137019  0.84910672  0.47098919
Direct configuration=    60
   0.94716689  0.07109070  0.95046321
   0.98658607  0.24504380  0.46673733
   0.15289330  0.99402582  0.28520814
   0.22697286  0.21732942  0.00674116
   0.09295575  0.94231785  0.56774450
   0.00560399  0.30033425  0.72616195
   0.25270124  0.00966702  0.78933533
   0.29275123  0.24817491  0.37772450
   0.99298812  0.44259894  0.02174209
   0.90347248  0.79977911  0.21028743
   0.27886963  0.53575815  0.22020209
   0.15668305  0.86629157  0.03531123
   0.96073838  0.62790887  0.59231616
   0.97821610  0.78851108  0.85645069
   0.32220655  0.53326527  0.79465551
   0.34656683  0.67973521  0.48481939
   0.47394994  0.96151665  0.98721147
   0.51612806  0.22407166  0.18709433
   0.75345802  0.04733960  0.17505274
   0.68495372  0.21807916  0.94721030
   0.49444841  0.92272506  0.55315714
   0.41305265  0.23601507  0.66181454
   0.75965301  0.96509640  0.75553047
   0.71152777  0.15936871  0.52563321
   0.52124426  0.50638183  0.02468751
   0.54098876  0.76077944  0.22726201
   0.79979423  0.39620668  0.25931874
   0.72789320  0.74663763  0.99497913
   0.68486147  0.56669143  0.43126335
   0.60773457  0.69729178  0.72202207
   0.63621632  0.40871451  0.70716611
   0.77672314  0.88125240  0.45469616
Direct configuration=    70
   0.96082570  0.07693165  0.94282160
   0.97623346  0.23898006  0.47734453
   0.13834969  0.00329651  0.29384466
   0.23385863  0.22649924  0.02435080
   0.08333142  0.92603156  0.56743303
   0.01407584  0.30480961  0.73399594
   0.26216449  0.00704702  0.79356639
   0.29780357  0.25168979  0.34432637
   0.00370970  0.43868103  0.01860062
   0.90626976  0.80230716  0.20174653
   0.27804582  0.53898379  0.21070854
   0.16328718  0.87203261  0.05506291
   0.96359150  0.63692887  0.60350278
   0.97945375  0.77898422  0.85739472
   0.32512766  0.53621621  0.79679481
   0.34778919  0.66640006  0.48971791
   0.47890259  0.96348240  0.98002558
   0.50547053  0.22694112  0.17933368
   0.74815685  0.04629136  0.18593619
   0.66429428  0.21238614  0.94363931
   0.48066026  0.92925273  0.56135786
   0.39492411  0.22116273  0.66516716
   0.75048347  0.97016432  0.76919243
   0.70907933  0.16156023  0.51520562
   0.53353603  0.50520203  0.02707972
   0.54764649  0.76047426  0.23040528
   0.80447264  0.36137634  0.24809613
   0.71742606  0.74515506  0.99764900
   0.69872384  0.58096933  0.42724696
   0.61432204  0.69970793  0.71638524
   0.63521588  0.40555432  0.69975894
   0.78276826  0.90450032  0.44230877
Direct configuration=    80
   0.98396187  0.08751290  0.93973912
   0.97302759  0.22682276  0.47188207
   0.11519234  0.02178422  0.30695830
   0.24437600  0.23577927  0.04587122
   0.06619017  0.90422876  0.57344933
   0.03007491  0.31243615  0.76110155
   0.26307720  0.99819065  0.80106116
   0.29113450  0.26246249  0.31522100
   0.01770935  0.43611708  0.01461349
   0.92021899  0.79871708  0.19244736
   0.27510261  0.54410058  0.19465414
   0.18769206  0.87431536  0.07657256
   0.96612713  0.64435384  0.61225084
   0.98254719  0.76425683  0.85515617
   0.32503510  0.53794294  0.79758151
   0.34643755  0.64835563  0.49799419
   0.49114518  0.96433435  0.97477182
   0.50133163  0.23051905  0.16816016
   0.73853624  0.04650410  0.20014799
   0.64337505  0.20987164  0.93226780
   0.46282017  0.94261072  0.56944466
   0.37318944  0.20880478  0.66579114
   0.73383568  0.97736386  0.78218956
   0.69133625  0.17464166  0.50162910
   0.55174613  0.50157723  0.02955953
   0.54939323  0.76150344  0.24051841
   0.80837530  0.31454472  0.22837686
   0.70239848  0.74367502  0.99548744
   0.71657319  0.60033830  0.42374783
   0.62171285  0.70363532  0.70637136
   0.63478464  0.40169820  0.69030172
   0.79154197  0.92100106  0.43468063
Direct configuration=    90
   0.00819838  0.09507164  0.94406798
   0.97501256  0.21603116  0.46681902
   0.08538405  0.04273527  0.31742023
   0.25137428  0.24054310  0.05413927
   0.05016292  0.88764306  0.58534491
   0.05484329  0.32115497  0.78431924
   0.25175646  0.98056898  0.81444326
   0.27125444  0.28124497  0.30873827
   0.03163361  0.44060287  0.01750697
   0.93933011  0.78939701  0.18326570
   0.27086432  0.55290068  0.17359892
   0.22427756  0.87335755  0.09564451
   0.96483680  0.63777407  0.61174799
   0.98833317  0.75301913  0.86298690
   0.32289853  0.53743352  0.79985626
   0.34517010  0.62826002  0.50681366
   0.50431950  0.96174811  0.97418315
   0.51160574  0.23297460  0.15946761
   0.72318250  0.03882612  0.20530529
   0.62744279  0.21346727  0.91444201
   0.44630637  0.95536518  0.57478023
   0.35132132  0.20928588  0.66176410
   0.71906850  0.98457788  0.78912751
   0.65830504  0.19386888  0.48507452
   0.57030432  0.49430434  0.03085092
   0.54433152  0.76517603  0.25596558
   0.81510440  0.27352427  0.20298951
   0.69151577  0.74498213  0.99064605
   0.73998631  0.61771462  0.41822755
   0.62800550  0.70902763  0.69206407
   0.63149758  0.40147820  0.67924539
   0.80237227  0.92594088  0.43915341
Direct configuration=   100
   0.01936555  0.09323915  0.95631678
   0.97021848  0.22178031  0.47854772
   0.06536236  0.04694672  0.30924434
   0.25365590  0.23829651  0.04033180
   0.04627352  0.88745411  0.59818201
   0.08113271  0.32731391  0.78432854
   0.23882504  0.96210298  0.82711581
   0.25143185  0.30255551  0.32758121
   0.03711507  0.45338136  0.03183637
   0.95573308  0.77807767  0.17755204
   0.26949899  0.56422041  0.15576062
   0.25733855  0.87216864  0.11301853
   0.96109538  0.61304504  0.60595206
   0.99485254  0.74892259  0.87914319
   0.32092894  0.53472047  0.80532452
   0.34469866  0.61187948  0.51075904
   0.50648944  0.95870700  0.97927718
   0.52327687  0.23434813  0.16433487
   0.70382241  0.01219442  0.19936512
   0.61897612  0.22472898  0.89596420
   0.43696539  0.95995719  0.57536699
   0.33217777  0.22222776  0.65661908
   0.71910748  0.98688746  0.78408928
   0.62528534  0.20717506  0.46609222
   0.58268146  0.48676994  0.02965666
   0.53457223  0.77064590  0.27029734
   0.83107056  0.25776022  0.17848946
   0.69232155  0.74838809  0.98757475
   0.76096489  0.62575569  0.40944766
   0.63049453  0.71477319  0.67831807
   0.62615232  0.40922090  0.67087236
   0.80811502  0.92435521  0.45324018
Direct configuration=   110
   0.01449463  0.08623365  0.97199647
   0.95911028  0.23897546  0.50193170
   0.05585705  0.03904868  0.28769115
   0.25889127  0.23503948  0.02304264
   0.05139694  0.89488244  0.61074345
   0.09881957  0.33266520  0.77358215
   0.23354860  0.94675429  0.83502195
   0.23681093  0.32241393  0.35069672
   0.03194199  0.46574739  0.04811002
   0.96919790  0.76668635  0.17711369
   0.27493069  0.57534924  0.14498900
   0.27887047  0.87218841  0.13128351
   0.96231447  0.58203548  0.60528437
   0.00190538  0.74779768  0.89181319
   0.32079089  0.53178462  0.81393664
   0.34417590  0.59811958  0.50924695
   0.50024850  0.96056659  0.98341447
   0.52713501  0.23542154  0.17695587
   0.69026266  0.98045030  0.19080275
   0.61290735  0.23574023  0.88139789
   0.43354773  0.95908448  0.57322242
   0.31930836  0.23838570  0.65054572
   0.73165791  0.98548559  0.77205914
   0.59860132  0.21252732  0.44775412
   0.58892558  0.48383695  0.02665212
   0.52247794  0.77399506  0.28277525
   0.84991488  0.25362325  0.15840797
   0.70281163  0.75183515  0.98677185
   0.77407910  0.62542571  0.39438071
   0.63009972  0.72165151  0.66663588
   0.62051510  0.42215188  0.66334937
   0.80445025  0.92409683  0.46839086
Direct configuration=   120
   0.00072622  0.07549836  0.98413700
   0.94540537  0.25607618  0.52551069
   0.05009800  0.03139501  0.26875582
   0.26814558  0.23376218  0.00891259
   0.05936801  0.90236981  0.61948761
   0.09933120  0.33993253  0.76768798
   0.23744602  0.93466671  0.84128346
   0.22539250  0.34114270  0.36769916
   0.02047859  0.47309271  0.06174008
   0.98202902  0.75487818  0.18319676
   0.28704357  0.58283656  0.14048588
   0.28635200  0.87556205  0.15158891
   0.97052996  0.55178571  0.61058172
   0.01066504  0.74673730  0.89503484
   0.32335729  0.53014740  0.82547364
   0.34303828  0.58539129  0.50490824
   0.49323990  0.96910819  0.97882796
   0.52394677  0.23592611  0.18344499
   0.69023232  0.95767581  0.18536594
   0.60561287  0.23943462  0.87049234
   0.43293786  0.95685014  0.57055231
   0.31995919  0.25099052  0.64093428
   0.75053078  0.98470424  0.76038018
   0.57790166  0.21233969  0.43939345
   0.59056738  0.48739231  0.02376216
   0.50864768  0.76979724  0.29835608
   0.86233780  0.25196104  0.14458996
   0.71831399  0.75441932  0.98568825
   0.78028199  0.62102214  0.37342830
   0.62791611  0.73038904  0.65524131
   0.61478066  0.43622485  0.65275444
   0.79338638  0.92649007  0.48030366
Direct configuration=   130
   0.98479585  0.05529853  0.98469009
   0.92360545  0.27020967  0.54813475
   0.04410781  0.02732100  0.26035800
   0.27925599  0.23241194  0.99420445
   0.06740137  0.90921731  0.62163876
   0.08618894  0.34709096  0.77581230
   0.24920446  0.92444063  0.84954318
   0.21037767  0.36145278  0.37638109
   0.00839002  0.47886123  0.07384831
   0.99856362  0.74182665  0.19599487
   0.30448390  0.58465596  0.14027189
   0.28283447  0.88651079  0.17577331
   0.98365854  0.52763670  0.61698418
   0.02347465  0.74309788  0.88768077
   0.32821533  0.52945822  0.83988069
   0.34143509  0.57334031  0.50191617
   0.49095339  0.98511473  0.96511947
   0.51457830  0.23601920  0.17320715
   0.70268761  0.94458245  0.18542934
   0.59367531  0.23642870  0.85894421
   0.43186407  0.95429448  0.56749379
   0.33564004  0.26064044  0.62876884
   0.77625994  0.98741312  0.75559523
   0.55964845  0.20677207  0.44866596
   0.58902387  0.49689552  0.02198224
   0.49576297  0.75556540  0.32465720
   0.86290461  0.25272929  0.13786922
   0.73850709  0.75518421  0.97977389
   0.78258599  0.61311232  0.34660276
   0.62404923  0.74053217  0.64184804
   0.60854392  0.45062472  0.63658226
   0.77732205  0.93126061  0.48434760
Direct configuration=   140
   0.97042913  0.02457251  0.97248361
   0.88747063  0.27426057  0.56702550
   0.03342302  0.02989241  0.26718417
   0.28788780  0.22914888  0.97599646
   0.07436672  0.91592306  0.61561611
   0.07152997  0.34491172  0.80516334
   0.26360473  0.91435691  0.85724098
   0.18458361  0.37955337  0.37457471
   0.00078067  0.48600088  0.08231709
   0.02172262  0.73178986  0.21312721
   0.32316986  0.58110879  0.14453587
   0.27860366  0.90541010  0.20224336
   0.99962640  0.52635700  0.61594742
   0.04094105  0.73137539  0.87108344
   0.33284562  0.52817374  0.85283272
   0.33977869  0.56444787  0.50765071
   0.50077061  0.00309612  0.95088696
   0.50434241  0.23560362  0.15349231
   0.72164472  0.93932330  0.18987197
   0.57791384  0.23408951  0.84249657
   0.42626332  0.95229954  0.56443974
   0.35525445  0.27168154  0.62317735
   0.80632451  0.99422183  0.76181563
   0.54686132  0.19649873  0.46572261
   0.58660396  0.50905841  0.02139316
   0.48976335  0.73644109  0.35977155
   0.84868829  0.25403682  0.13746384
   0.76253298  0.75417331  0.96695649
   0.78104090  0.60003419  0.31542988
   0.61786781  0.74930970  0.63048592
   0.60320649  0.46250104  0.61636907
   0.76015687  0.94034819  0.47520424
Direct configuration=   150
   0.96916949  0.99748943  0.96829504
   0.84918818  0.26979128  0.57969764
   0.01815490  0.03896502  0.28365648
   0.28869899  0.22355995  0.95785607
   0.07913327  0.92165673  0.60424289
   0.05764444  0.33535020  0.83962014
   0.27301143  0.90541277  0.86023124
   0.15437939  0.38884905  0.36583826
   0.99922376  0.49111997  0.08380048
   0.04492315  0.73075931  0.22937946
   0.33374620  0.57627620  0.15360818
   0.28415479  0.92374052  0.22243533
   0.01564908  0.54302863  0.60689151
   0.05792406  0.71183700  0.85291820
   0.33371361  0.52649595  0.85654203
   0.33313770  0.55879978  0.52447231
   0.52149461  0.00694518  0.94655770
   0.50247984  0.23624591  0.14399263
   0.73704053  0.93877245  0.19001687
   0.56916849  0.24306381  0.82275658
   0.41363107  0.95259243  0.56396961
   0.35748286  0.28463733  0.63188776
   0.82224565  0.00086016  0.76314902
   0.55069826  0.18548808  0.46869143
   0.58851290  0.51731303  0.02187634
   0.49438165  0.72452694  0.38163382
   0.82720539  0.25336329  0.13837927
   0.78131950  0.75250893  0.95406651
   0.77612573  0.58603443  0.28851850
   0.61384785  0.75366313  0.63236072
   0.60260412  0.46799684  0.59906893
   0.74990911  0.95285624  0.46358904
Direct configuration=   160
   0.98509849  0.97843372  0.98122698
   0.81984952  0.26529463  0.58968694
   0.00407978  0.05133442  0.30194241
   0.28686700  0.21375096  0.94356467
   0.08168584  0.92556633  0.59232917
   0.03906835  0.32540342  0.86149831
   0.27932491  0.89826823  0.86022848
   0.12720531  0.39184839  0.35454190
   0.00107011  0.49467839  0.08284839
   0.06298820  0.73513077  0.24352574
   0.33462922  0.57243257  0.16627312
   0.29776011  0.93896190  0.23575751
   0.02681155  0.55875694  0.59574652
   0.07174932  0.69126450  0.83903809
   0.33131831  0.52478485  0.85309100
   0.31871267  0.55659145  0.54394257
   0.54673386  0.99734210  0.94926595
   0.50736151  0.23874604  0.14704736
   0.74591373  0.93876085  0.18061994
   0.57197356  0.25942671  0.80645581
   0.39682856  0.95487239  0.56624524
   0.34199917  0.29407443  0.64504884
   0.81922096  0.00739602  0.75124434
   0.56236476  0.17883434  0.45863238
   0.59567377  0.52075225  0.02201408
   0.50490521  0.71997329  0.38261103
   0.80666563  0.25219012  0.13710977
   0.79222333  0.74899068  0.94439381
   0.77095897  0.57553697  0.26824797
   0.61548584  0.75741102  0.65075264
   0.60625436  0.46935959  0.58475567
   0.74721812  0.96383171  0.46031340
Direct configuration=   170
   0.01004979  0.96455377  0.99896369
   0.80192166  0.26334532  0.59901217
   0.99425376  0.06692546  0.31941595
   0.28720215  0.19804000  0.93377759
   0.08109120  0.92663054  0.58198796
   0.01497886  0.31272275  0.86997589
   0.28700519  0.89071046  0.85932553
   0.10191656  0.39024463  0.34246358
   0.00486443  0.50075636  0.08347278
   0.07603299  0.74187907  0.25742275
   0.32953038  0.56869021  0.18027683
   0.31600734  0.95375808  0.24658559
   0.02739862  0.56987131  0.57990808
   0.08268693  0.67479654  0.83214817
   0.32899208  0.52242380  0.84940995
   0.30294329  0.56245395  0.55828152
   0.57293103  0.98481127  0.95139134
   0.51132592  0.24210021  0.15623373
   0.75162690  0.93685623  0.16724015
   0.58328231  0.27473369  0.79844813
   0.38114583  0.95847332  0.56905220
   0.31671904  0.29404545  0.65427924
   0.80934000  0.01441854  0.74095802
   0.56692552  0.18015083  0.44251027
   0.60427808  0.52104985  0.01951458
   0.51798078  0.71906043  0.37339606
   0.79136600  0.25196997  0.13263372
   0.79944245  0.74256091  0.93573687
   0.76829691  0.56910160  0.25381408
   0.61899678  0.76362965  0.68036046
   0.60952016  0.47180134  0.56876302
   0.74994708  0.96743447  0.46324011
Direct configuration=   180
   0.04122897  0.95297993  0.01640637
   0.79912867  0.26603668  0.60476696
   0.98810387  0.08768148  0.33487195
   0.28936125  0.17606053  0.92918909
   0.07491067  0.92351693  0.57416091
   0.98619942  0.29338363  0.86874214
   0.29943362  0.87966996  0.85854645
   0.07560485  0.38337817  0.33203329
   0.01145885  0.51144142  0.08207601
   0.08453762  0.75148966  0.27416010
   0.32124553  0.56301040  0.19440213
   0.33827014  0.97155143  0.25731178
   0.00952232  0.57911572  0.55585197
   0.09007532  0.66329907  0.83082770
   0.33164435  0.51687162  0.85138409
   0.29298132  0.57787270  0.56487843
   0.59512701  0.97532073  0.94734809
   0.50546321  0.24614648  0.16465766
   0.76074877  0.93148491  0.15964605
   0.59552555  0.28688198  0.80053404
   0.37109396  0.96386112  0.57146478
   0.28506002  0.28433790  0.65752724
   0.80052496  0.02060080  0.74342213
   0.55953527  0.18816934  0.42413033
   0.61038426  0.51871706  0.01220918
   0.53429805  0.72184595  0.36275267
   0.78587232  0.25372020  0.12331271
   0.80926969  0.73381652  0.92805195
   0.77089358  0.56623916  0.24605850
   0.61831807  0.77142134  0.71430931
   0.60837298  0.48033736  0.54744535
   0.75580553  0.95973982  0.46752065
Direct configuration=   190
   0.07502586  0.94226731  0.03366025
   0.81101898  0.27388457  0.60108210
   0.98444661  0.10976667  0.34686327
   0.29371645  0.15120578  0.92965941
   0.06386516  0.91577011  0.56937102
   0.95663958  0.26853693  0.86306361
   0.31797114  0.86271896  0.85684794
   0.05007673  0.37406560  0.32596416
   0.02092269  0.52389842  0.07485062
   0.08810525  0.76383058  0.29507226
   0.31224481  0.55451779  0.20765198
   0.36176983  0.99216709  0.26796142
   0.97546878  0.59016966  0.52736814
   0.09356426  0.65674434  0.82723837
   0.34271200  0.50550764  0.85936473
   0.28807439  0.59862842  0.56612883
   0.60448937  0.97356425  0.93953475
   0.48737252  0.25228149  0.16059819
   0.77884204  0.92236529  0.16437119
   0.60163231  0.29472979  0.81218094
   0.36770244  0.97168737  0.57293946
   0.25098904  0.27101710  0.65377468
   0.79769631  0.02572173  0.75745882
   0.54648213  0.19719269  0.41540648
   0.61271351  0.51552897  0.00137366
   0.55110451  0.73011165  0.35266547
   0.78923556  0.25729817  0.10901535
   0.82573976  0.72436442  0.92587136
   0.78051780  0.56736065  0.24434466
   0.60771229  0.77719629  0.74277487
   0.60162745  0.49278528  0.52402540
   0.76052044  0.94311496  0.47151663
Direct configuration=   200
   0.10242913  0.93255752  0.04779934
   0.82661490  0.28417577  0.58722295
   0.98031641  0.11784065  0.35411715
   0.29995347  0.13181206  0.93095911
   0.05391254  0.90665684  0.57062348
   0.93869213  0.24752385  0.85851384
   0.33609830  0.84196687  0.85428962
   0.03274848  0.37440224  0.32348469
   0.03134715  0.53189860  0.06615161
   0.08908542  0.77496832  0.31235594
   0.30544483  0.54638674  0.21877523
   0.37871979  0.00736730  0.27404647
   0.94054097  0.60173092  0.50642981
   0.09696403  0.65500515  0.81539750
   0.35453684  0.49154853  0.86672130
   0.28360497  0.61774768  0.56549239
   0.59756430  0.98181313  0.94425322
   0.46711679  0.26104959  0.14238087
   0.80020442  0.91303907  0.17545109
   0.60141855  0.29350678  0.82349301
   0.36860113  0.98084555  0.57464988
   0.22214112  0.26058490  0.64680676
   0.80326175  0.02833127  0.76913562
   0.53697197  0.20461527  0.42312013
   0.61449589  0.51769696  0.99606582
   0.56239436  0.74275500  0.34177557
   0.79349085  0.26029486  0.09738990
   0.84182227  0.71887805  0.92974862
   0.79356716  0.57155417  0.24480541
   0.59119882  0.77437691  0.75517518
   0.59304047  0.50075702  0.50711536
   0.76170079  0.92631241  0.47625312
Direct configuration=   210
   0.12378817  0.92145535  0.05882104
   0.84042060  0.29642121  0.56719031
   0.97438627  0.10761794  0.35760240
   0.30619994  0.11779958  0.92798145
   0.04809216  0.89865057  0.58121553
   0.93916475  0.23756256  0.85504530
   0.34641683  0.81884218  0.85389623
   0.02355271  0.38808860  0.32277624
   0.04401177  0.53365917  0.05837930
   0.09150331  0.78331819  0.32199965
   0.30121080  0.54028569  0.22995868
   0.38768460  0.01419590  0.27238828
   0.90715843  0.61419059  0.49779277
   0.10290790  0.65568133  0.79561850
   0.35970621  0.47702396  0.87017847
   0.27873222  0.63627445  0.56359505
   0.58120716  0.99691172  0.96476005
   0.45149738  0.27235895  0.11969209
   0.82096358  0.90439562  0.18578478
   0.59907936  0.28251987  0.82916673
   0.36970361  0.98976427  0.57955426
   0.19607086  0.25333019  0.64010950
   0.80997448  0.02098048  0.77276970
   0.53216954  0.21432222  0.44011005
   0.61969563  0.52896436  0.99999491
   0.56797433  0.75725902  0.32600114
   0.79370766  0.26258237  0.09465437
   0.85091604  0.72020768  0.93628563
   0.80508236  0.57830447  0.24090983
   0.58045546  0.76109228  0.75416932
   0.58543301  0.50413676  0.49761185
   0.76113288  0.91180245  0.48398658
Direct configuration=   220
   0.14259354  0.90660103  0.06795992
   0.85210759  0.31138828  0.54585531
   0.96912227  0.08834302  0.35767259
   0.30763949  0.10642467  0.91605069
   0.04645093  0.89255907  0.60260543
   0.95660937  0.24019823  0.85107418
   0.34447877  0.79406724  0.85984988
   0.02057568  0.40739773  0.32408305
   0.06168685  0.52958934  0.04882322
   0.09784980  0.78814781  0.32620076
   0.30054654  0.53627439  0.24441267
   0.39130557  0.01617593  0.26289134
   0.87131595  0.62991393  0.50451805
   0.10638530  0.65460898  0.77200216
   0.35703523  0.46087528  0.86970155
   0.27781762  0.65863456  0.55726809
   0.56304571  0.01226577  0.99643519
   0.44019770  0.28732010  0.09891537
   0.84106086  0.89566329  0.19340158
   0.59872201  0.26517189  0.82926837
   0.36950009  0.99727665  0.58907400
   0.16749098  0.24763869  0.63365259
   0.81062510  0.99895926  0.77245502
   0.52911871  0.22696512  0.46209205
   0.62647470  0.54704163  0.00939881
   0.56941508  0.77195745  0.30118700
   0.79013406  0.26512026  0.10100416
   0.85471304  0.72874389  0.94293883
   0.81248497  0.58892723  0.22737128
   0.58568353  0.73879793  0.74301443
   0.57845713  0.50894555  0.49265227
   0.75935583  0.89800578  0.49617018
Direct configuration=   230
   0.15664615  0.89123247  0.07287618
   0.85752213  0.32492657  0.53099429
   0.96846010  0.07420767  0.35829927
   0.29929908  0.09973923  0.89491308
   0.04922660  0.89189063  0.62626442
   0.97928898  0.24885022  0.84978394
   0.33898090  0.77184494  0.87014780
   0.02515183  0.42539978  0.32641400
   0.08141052  0.52157284  0.03705628
   0.10645161  0.78683084  0.32980135
   0.30513825  0.53478529  0.26142363
   0.38895637  0.01893893  0.25263821
   0.84000230  0.64207070  0.52243331
   0.10026968  0.64535555  0.75484778
   0.34832990  0.44687990  0.86348392
   0.28665419  0.68313542  0.54441430
   0.55315068  0.01952614  0.03138938
   0.43282676  0.30285291  0.08790926
   0.85548987  0.88938590  0.19584322
   0.60261184  0.24700731  0.82297001
   0.36854312  0.00132940  0.60093443
   0.14115168  0.24329620  0.62527515
   0.80522426  0.97362449  0.77705971
   0.52593603  0.23625209  0.48337522
   0.62600324  0.56478433  0.01685949
   0.56889092  0.78266297  0.27092940
   0.78629201  0.26743300  0.11226373
   0.85772729  0.74098101  0.94513658
   0.81749405  0.60065979  0.21135848
   0.60220696  0.71264409  0.72755944
   0.57159264  0.51941567  0.48920459
   0.75307004  0.89048372  0.50614015
Direct configuration=   240
   0.16390859  0.87973391  0.07238854
   0.85273519  0.33323423  0.52519065
   0.97334216  0.07260508  0.36465623
   0.28597674  0.09763456  0.87178493
   0.05584546  0.89876295  0.64327273
   0.99638817  0.25902301  0.85697449
   0.34013597  0.75362944  0.87838601
   0.03655625  0.44145946  0.32820252
   0.09940297  0.51239559  0.02550687
   0.11173189  0.78060385  0.33597660
   0.31559024  0.53532774  0.27771063
   0.37585950  0.02564896  0.25404963
   0.82416552  0.64082579  0.54210296
   0.08689654  0.62411994  0.74567758
   0.33613247  0.43756762  0.84750323
   0.30484993  0.70725087  0.53247393
   0.55649815  0.01934925  0.05692718
   0.42960760  0.31429952  0.08784016
   0.86061499  0.88900212  0.19264348
   0.60837931  0.23007974  0.81275365
   0.36820208  0.00102508  0.61152278
   0.12503645  0.23969309  0.60995284
   0.79524869  0.95750843  0.78915898
   0.52299470  0.23961697  0.50128416
   0.61162545  0.57692481  0.01794347
   0.56891113  0.78719999  0.24245677
   0.78465066  0.26924358  0.12460675
   0.86409887  0.74863272  0.94168295
   0.82458147  0.60817619  0.20428289
   0.61665493  0.68812501  0.71749716
   0.56310114  0.53244682  0.48269101